5311054
  -OEChem-06182314312D

179179  0     1  0  0  0  0  0999 V2000
   20.9672    4.0903    0.0000 O   0  0  0  0  0  0  0  0  0  0  0  0
   23.5081    1.3696    0.0000 O   0  0  0  0  0  0  0  0  0  0  0  0
   17.2446    4.0903    0.0000 O   0  0  0  0  0  0  0  0  0  0  0  0
   14.7037    1.3696    0.0000 O   0  0  0  0  0  0  0  0  0  0  0  0
   23.2541   -2.3443    0.0000 O   0  0  0  0  0  0  0  0  0  0  0  0
   14.3266   -1.6041    0.0000 O   0  0  0  0  0  0  0  0  0  0  0  0
   18.5444   -5.4088    0.0000 O   0  0  0  0  0  0  0  0  0  0  0  0
   20.3664   -4.6936    0.0000 O   0  0  0  0  0  0  0  0  0  0  0  0
   10.6575   -3.9573    0.0000 O   0  0  0  0  0  0  0  0  0  0  0  0
   16.6784   -4.1868    0.0000 O   0  0  0  0  0  0  0  0  0  0  0  0
   10.8939   -0.5013    0.0000 O   0  0  0  0  0  0  0  0  0  0  0  0
    9.6598   -3.8890    0.0000 O   0  0  0  0  0  0  0  0  0  0  0  0
    6.2271   -2.7862    0.0000 O   0  0  0  0  0  0  0  0  0  0  0  0
   21.4232    2.6535    0.0000 N   0  0  0  0  0  0  0  0  0  0  0  0
   18.6059    3.4428    0.0000 N   0  0  0  0  0  0  0  0  0  0  0  0
   22.7693    0.0557    0.0000 N   0  0  0  0  0  0  0  0  0  0  0  0
   16.1060    1.9226    0.0000 N   0  0  0  0  0  0  0  0  0  0  0  0
   14.4448    0.1239    0.0000 N   0  0  0  0  0  0  0  0  0  0  0  0
   21.7895   -2.7012    0.0000 N   0  0  0  0  0  0  0  0  0  0  0  0
   16.4223   -2.7012    0.0000 N   0  0  0  0  0  0  0  0  0  0  0  0
   12.3313   -1.4676    0.0000 N   0  0  0  0  0  0  0  0  0  0  0  0
   19.1059   -3.8669    0.0000 N   0  0  0  0  0  0  0  0  0  0  0  0
    9.7780   -2.1610    0.0000 N   0  0  0  0  0  0  0  0  0  0  0  0
    7.6645   -3.7526    0.0000 N   0  0  0  0  0  0  0  0  0  0  0  0
   14.5391    4.0462    0.0000 N   0  0  0  0  0  0  0  0  0  0  0  0
   25.3250   -0.6027    0.0000 N   0  0  0  0  0  0  0  0  0  0  0  0
   23.0527   -5.0184    0.0000 N   0  0  0  0  0  0  0  0  0  0  0  0
   11.0121    1.2268    0.0000 N   0  0  0  0  0  0  0  0  0  0  0  0
    6.3453   -1.0582    0.0000 N   0  0  0  0  0  0  0  0  0  0  0  0
   19.6059    3.4428    0.0000 C   0  0  2  0  0  0  0  0  0  0  0  0
   22.1058    1.9226    0.0000 C   0  0  1  0  0  0  0  0  0  0  0  0
   19.7421    4.4335    0.0000 C   0  0  0  0  0  0  0  0  0  0  0  0
   22.9228    2.4993    0.0000 C   0  0  0  0  0  0  0  0  0  0  0  0
   18.9522    5.0468    0.0000 C   0  0  0  0  0  0  0  0  0  0  0  0
   22.8318    3.4952    0.0000 C   0  0  0  0  0  0  0  0  0  0  0  0
   20.5688    3.1730    0.0000 C   0  0  0  0  0  0  0  0  0  0  0  0
   16.7886    2.6535    0.0000 C   0  0  2  0  0  0  0  0  0  0  0  0
   22.5659    1.0347    0.0000 C   0  0  0  0  0  0  0  0  0  0  0  0
   22.7011   -0.9420    0.0000 C   0  0  1  0  0  0  0  0  0  0  0  0
   17.6430    3.1730    0.0000 C   0  0  0  0  0  0  0  0  0  0  0  0
   15.4425    0.0557    0.0000 C   0  0  1  0  0  0  0  0  0  0  0  0
   19.0884    6.0375    0.0000 C   0  0  0  0  0  0  0  0  0  0  0  0
   18.0261    4.6694    0.0000 C   0  0  0  0  0  0  0  0  0  0  0  0
   16.1575    3.4292    0.0000 C   0  0  0  0  0  0  0  0  0  0  0  0
   23.6488    4.0719    0.0000 C   0  0  0  0  0  0  0  0  0  0  0  0
   21.9239    3.9143    0.0000 C   0  0  0  0  0  0  0  0  0  0  0  0
   15.5107   -0.9420    0.0000 C   0  0  0  0  0  0  0  0  0  0  0  0
   23.6802   -1.1455    0.0000 C   0  0  0  0  0  0  0  0  0  0  0  0
   15.6459    1.0347    0.0000 C   0  0  0  0  0  0  0  0  0  0  0  0
   21.0138   -3.3323    0.0000 C   0  0  1  0  0  0  0  0  0  0  0  0
   12.8892   -0.6377    0.0000 C   0  0  2  0  0  0  0  0  0  0  0  0
   22.3662   -1.8843    0.0000 C   0  0  0  0  0  0  0  0  0  0  0  0
   15.8456   -1.8843    0.0000 C   0  0  0  0  0  0  0  0  0  0  0  0
    3.5556   -5.2076    0.0000 C   0  0  3  0  0  0  0  0  0  0  0  0
    4.5533   -5.2758    0.0000 C   0  0  0  0  0  0  0  0  0  0  0  0
   18.1152   -3.7307    0.0000 C   0  0  1  0  0  0  0  0  0  0  0  0
   15.1701    3.2705    0.0000 C   0  0  0  0  0  0  0  0  0  0  0  0
   13.8869   -0.7060    0.0000 C   0  0  0  0  0  0  0  0  0  0  0  0
    5.1112   -4.4460    0.0000 C   0  0  0  0  0  0  0  0  0  0  0  0
   21.5334   -4.1868    0.0000 C   0  0  0  0  0  0  0  0  0  0  0  0
   10.7757   -2.2293    0.0000 C   0  0  2  0  0  0  0  0  0  0  0  0
   12.4495    0.2604    0.0000 C   0  0  0  0  0  0  0  0  0  0  0  0
   24.3459   -0.3993    0.0000 C   0  0  0  0  0  0  0  0  0  0  0  0
   20.0966   -3.7307    0.0000 C   0  0  0  0  0  0  0  0  0  0  0  0
    2.9977   -6.0375    0.0000 C   0  0  0  0  0  0  0  0  0  0  0  0
   17.8454   -4.6936    0.0000 C   0  0  1  0  0  0  0  0  0  0  0  0
    8.2224   -2.9227    0.0000 C   0  0  1  0  0  0  0  0  0  0  0  0
   17.1980   -3.3323    0.0000 C   0  0  0  0  0  0  0  0  0  0  0  0
    6.1089   -4.5142    0.0000 C   0  0  0  0  0  0  0  0  0  0  0  0
   11.3336   -1.3994    0.0000 C   0  0  0  0  0  0  0  0  0  0  0  0
   11.2154   -3.1274    0.0000 C   0  0  1  0  0  0  0  0  0  0  0  0
    3.1159   -4.3095    0.0000 C   0  0  0  0  0  0  0  0  0  0  0  0
   22.5331   -4.1640    0.0000 C   0  0  0  0  0  0  0  0  0  0  0  0
    7.7827   -2.0245    0.0000 C   0  0  0  0  0  0  0  0  0  0  0  0
    9.2201   -2.9909    0.0000 C   0  0  0  0  0  0  0  0  0  0  0  0
   11.4518    0.3286    0.0000 C   0  0  0  0  0  0  0  0  0  0  0  0
    6.6668   -3.6843    0.0000 C   0  0  0  0  0  0  0  0  0  0  0  0
    2.0000   -5.9692    0.0000 C   0  0  0  0  0  0  0  0  0  0  0  0
   16.8766   -4.9414    0.0000 C   0  0  0  0  0  0  0  0  0  0  0  0
   12.2131   -3.1956    0.0000 C   0  0  0  0  0  0  0  0  0  0  0  0
    6.7850   -1.9563    0.0000 C   0  0  0  0  0  0  0  0  0  0  0  0
   19.1984    3.9102    0.0000 H   0  0  0  0  0  0  0  0  0  0  0  0
   22.1692    2.5394    0.0000 H   0  0  0  0  0  0  0  0  0  0  0  0
   20.3323    4.2437    0.0000 H   0  0  0  0  0  0  0  0  0  0  0  0
   20.0315    4.9818    0.0000 H   0  0  0  0  0  0  0  0  0  0  0  0
   23.1869    1.9384    0.0000 H   0  0  0  0  0  0  0  0  0  0  0  0
   23.5210    2.6620    0.0000 H   0  0  0  0  0  0  0  0  0  0  0  0
   18.8678    4.4326    0.0000 H   0  0  0  0  0  0  0  0  0  0  0  0
   23.3947    3.2353    0.0000 H   0  0  0  0  0  0  0  0  0  0  0  0
   21.8145    3.1344    0.0000 H   0  0  0  0  0  0  0  0  0  0  0  0
   16.1689    2.6746    0.0000 H   0  0  0  0  0  0  0  0  0  0  0  0
   18.5215    4.0571    0.0000 H   0  0  0  0  0  0  0  0  0  0  0  0
   23.1951   -0.5674    0.0000 H   0  0  0  0  0  0  0  0  0  0  0  0
   15.0679    0.5497    0.0000 H   0  0  0  0  0  0  0  0  0  0  0  0
   19.7026    5.9531    0.0000 H   0  0  0  0  0  0  0  0  0  0  0  0
   19.1728    6.6517    0.0000 H   0  0  0  0  0  0  0  0  0  0  0  0
   18.4741    6.1219    0.0000 H   0  0  0  0  0  0  0  0  0  0  0  0
   17.7922    5.2435    0.0000 H   0  0  0  0  0  0  0  0  0  0  0  0
   17.4520    4.4354    0.0000 H   0  0  0  0  0  0  0  0  0  0  0  0
   18.2601    4.0952    0.0000 H   0  0  0  0  0  0  0  0  0  0  0  0
   23.3879    0.0980    0.0000 H   0  0  0  0  0  0  0  0  0  0  0  0
   16.6991    3.7310    0.0000 H   0  0  0  0  0  0  0  0  0  0  0  0
   15.9543    4.0149    0.0000 H   0  0  0  0  0  0  0  0  0  0  0  0
   24.0063    3.5653    0.0000 H   0  0  0  0  0  0  0  0  0  0  0  0
   24.1553    4.4294    0.0000 H   0  0  0  0  0  0  0  0  0  0  0  0
   23.2913    4.5784    0.0000 H   0  0  0  0  0  0  0  0  0  0  0  0
   22.1838    4.4772    0.0000 H   0  0  0  0  0  0  0  0  0  0  0  0
   21.3610    4.1742    0.0000 H   0  0  0  0  0  0  0  0  0  0  0  0
   21.6640    3.3514    0.0000 H   0  0  0  0  0  0  0  0  0  0  0  0
   14.9314   -0.7211    0.0000 H   0  0  0  0  0  0  0  0  0  0  0  0
   16.1178   -0.8159    0.0000 H   0  0  0  0  0  0  0  0  0  0  0  0
   15.5995    2.2802    0.0000 H   0  0  0  0  0  0  0  0  0  0  0  0
   23.4505   -1.7214    0.0000 H   0  0  0  0  0  0  0  0  0  0  0  0
   24.2074   -1.4716    0.0000 H   0  0  0  0  0  0  0  0  0  0  0  0
   21.6248   -3.4377    0.0000 H   0  0  0  0  0  0  0  0  0  0  0  0
   12.2707   -0.5954    0.0000 H   0  0  0  0  0  0  0  0  0  0  0  0
   15.2282   -1.8279    0.0000 H   0  0  0  0  0  0  0  0  0  0  0  0
   16.3961   -1.5990    0.0000 H   0  0  0  0  0  0  0  0  0  0  0  0
    2.9370   -5.1653    0.0000 H   0  0  0  0  0  0  0  0  0  0  0  0
   14.1722    0.6807    0.0000 H   0  0  0  0  0  0  0  0  0  0  0  0
    4.4042   -5.8776    0.0000 H   0  0  0  0  0  0  0  0  0  0  0  0
    5.1200   -5.5272    0.0000 H   0  0  0  0  0  0  0  0  0  0  0  0
   18.5814   -4.4415    0.0000 H   0  0  0  0  0  0  0  0  0  0  0  0
   14.6286    2.9687    0.0000 H   0  0  0  0  0  0  0  0  0  0  0  0
   15.3733    2.6847    0.0000 H   0  0  0  0  0  0  0  0  0  0  0  0
   22.2426   -3.1244    0.0000 H   0  0  0  0  0  0  0  0  0  0  0  0
    5.2603   -3.8442    0.0000 H   0  0  0  0  0  0  0  0  0  0  0  0
    4.5444   -4.1946    0.0000 H   0  0  0  0  0  0  0  0  0  0  0  0
   20.9558   -4.4120    0.0000 H   0  0  0  0  0  0  0  0  0  0  0  0
   21.6549   -4.7947    0.0000 H   0  0  0  0  0  0  0  0  0  0  0  0
   10.4298   -2.7438    0.0000 H   0  0  0  0  0  0  0  0  0  0  0  0
   13.0452    0.4322    0.0000 H   0  0  0  0  0  0  0  0  0  0  0  0
   12.3837    0.8769    0.0000 H   0  0  0  0  0  0  0  0  0  0  0  0
   24.5755    0.1766    0.0000 H   0  0  0  0  0  0  0  0  0  0  0  0
   23.8186   -0.0731    0.0000 H   0  0  0  0  0  0  0  0  0  0  0  0
    2.8486   -6.6393    0.0000 H   0  0  0  0  0  0  0  0  0  0  0  0
    3.5644   -6.2888    0.0000 H   0  0  0  0  0  0  0  0  0  0  0  0
   15.9692   -3.1244    0.0000 H   0  0  0  0  0  0  0  0  0  0  0  0
   12.6039   -2.0245    0.0000 H   0  0  0  0  0  0  0  0  0  0  0  0
   17.6781   -5.2907    0.0000 H   0  0  0  0  0  0  0  0  0  0  0  0
   19.1059   -4.4869    0.0000 H   0  0  0  0  0  0  0  0  0  0  0  0
    7.6039   -2.8804    0.0000 H   0  0  0  0  0  0  0  0  0  0  0  0
    5.9598   -5.1160    0.0000 H   0  0  0  0  0  0  0  0  0  0  0  0
    6.6756   -4.7655    0.0000 H   0  0  0  0  0  0  0  0  0  0  0  0
   11.4881   -3.6842    0.0000 H   0  0  0  0  0  0  0  0  0  0  0  0
    3.6727   -4.0368    0.0000 H   0  0  0  0  0  0  0  0  0  0  0  0
    2.8432   -3.7526    0.0000 H   0  0  0  0  0  0  0  0  0  0  0  0
    2.5590   -4.5821    0.0000 H   0  0  0  0  0  0  0  0  0  0  0  0
    9.5054   -1.6042    0.0000 H   0  0  0  0  0  0  0  0  0  0  0  0
    8.3784   -1.8527    0.0000 H   0  0  0  0  0  0  0  0  0  0  0  0
    7.7169   -1.4080    0.0000 H   0  0  0  0  0  0  0  0  0  0  0  0
   23.1108   -3.9387    0.0000 H   0  0  0  0  0  0  0  0  0  0  0  0
   22.4116   -3.5560    0.0000 H   0  0  0  0  0  0  0  0  0  0  0  0
   10.8561    0.1568    0.0000 H   0  0  0  0  0  0  0  0  0  0  0  0
   11.5176   -0.2879    0.0000 H   0  0  0  0  0  0  0  0  0  0  0  0
    7.9371   -4.3094    0.0000 H   0  0  0  0  0  0  0  0  0  0  0  0
    2.0423   -5.3507    0.0000 H   0  0  0  0  0  0  0  0  0  0  0  0
    1.3814   -5.9269    0.0000 H   0  0  0  0  0  0  0  0  0  0  0  0
    1.9577   -6.5878    0.0000 H   0  0  0  0  0  0  0  0  0  0  0  0
   13.9269    3.9478    0.0000 H   0  0  0  0  0  0  0  0  0  0  0  0
   14.7599    4.6255    0.0000 H   0  0  0  0  0  0  0  0  0  0  0  0
   16.7230   -4.3408    0.0000 H   0  0  0  0  0  0  0  0  0  0  0  0
   16.2759   -5.0951    0.0000 H   0  0  0  0  0  0  0  0  0  0  0  0
   17.0303   -5.5421    0.0000 H   0  0  0  0  0  0  0  0  0  0  0  0
   12.1708   -3.8142    0.0000 H   0  0  0  0  0  0  0  0  0  0  0  0
   12.8316   -3.2380    0.0000 H   0  0  0  0  0  0  0  0  0  0  0  0
   12.2554   -2.5771    0.0000 H   0  0  0  0  0  0  0  0  0  0  0  0
   25.7377   -0.1401    0.0000 H   0  0  0  0  0  0  0  0  0  0  0  0
   25.5193   -1.1915    0.0000 H   0  0  0  0  0  0  0  0  0  0  0  0
    6.1893   -2.1281    0.0000 H   0  0  0  0  0  0  0  0  0  0  0  0
    6.8508   -2.5728    0.0000 H   0  0  0  0  0  0  0  0  0  0  0  0
   18.3772   -6.0058    0.0000 H   0  0  0  0  0  0  0  0  0  0  0  0
   23.6725   -5.0043    0.0000 H   0  0  0  0  0  0  0  0  0  0  0  0
   22.7550   -5.5623    0.0000 H   0  0  0  0  0  0  0  0  0  0  0  0
   10.3935    1.2691    0.0000 H   0  0  0  0  0  0  0  0  0  0  0  0
   11.3580    1.7413    0.0000 H   0  0  0  0  0  0  0  0  0  0  0  0
   10.9301   -4.5141    0.0000 H   0  0  0  0  0  0  0  0  0  0  0  0
    5.7267   -1.0159    0.0000 H   0  0  0  0  0  0  0  0  0  0  0  0
    6.6912   -0.5436    0.0000 H   0  0  0  0  0  0  0  0  0  0  0  0
  1 36  2  0  0  0  0
  2 38  2  0  0  0  0
  3 40  2  0  0  0  0
  4 49  2  0  0  0  0
  5 52  2  0  0  0  0
  6 58  2  0  0  0  0
 66  7  1  6  0  0  0
  7172  1  0  0  0  0
  8 64  2  0  0  0  0
 71  9  1  1  0  0  0
  9177  1  0  0  0  0
 10 68  2  0  0  0  0
 11 70  2  0  0  0  0
 12 75  2  0  0  0  0
 13 77  2  0  0  0  0
 14 31  1  0  0  0  0
 14 36  1  0  0  0  0
 14 90  1  0  0  0  0
 15 30  1  0  0  0  0
 15 40  1  0  0  0  0
 15 92  1  0  0  0  0
 16 38  1  0  0  0  0
 16 39  1  0  0  0  0
 16101  1  0  0  0  0
 17 37  1  0  0  0  0
 17 49  1  0  0  0  0
 17112  1  0  0  0  0
 41 18  1  6  0  0  0
 18 58  1  0  0  0  0
 18120  1  0  0  0  0
 19 50  1  0  0  0  0
 19 52  1  0  0  0  0
 19126  1  0  0  0  0
 20 53  1  0  0  0  0
 20 68  1  0  0  0  0
 20138  1  0  0  0  0
 51 21  1  1  0  0  0
 21 70  1  0  0  0  0
 21139  1  0  0  0  0
 22 56  1  0  0  0  0
 22 64  1  0  0  0  0
 22141  1  0  0  0  0
 61 23  1  6  0  0  0
 23 75  1  0  0  0  0
 23149  1  0  0  0  0
 67 24  1  1  0  0  0
 24 77  1  0  0  0  0
 24156  1  0  0  0  0
 25 57  1  0  0  0  0
 25160  1  0  0  0  0
 25161  1  0  0  0  0
 26 63  1  0  0  0  0
 26168  1  0  0  0  0
 26169  1  0  0  0  0
 27 73  1  0  0  0  0
 27173  1  0  0  0  0
 27174  1  0  0  0  0
 28 76  1  0  0  0  0
 28175  1  0  0  0  0
 28176  1  0  0  0  0
 29 81  1  0  0  0  0
 29178  1  0  0  0  0
 29179  1  0  0  0  0
 30 32  1  6  0  0  0
 30 36  1  0  0  0  0
 30 82  1  0  0  0  0
 31 33  1  1  0  0  0
 31 38  1  0  0  0  0
 31 83  1  0  0  0  0
 32 34  1  0  0  0  0
 32 84  1  0  0  0  0
 32 85  1  0  0  0  0
 33 35  1  0  0  0  0
 33 86  1  0  0  0  0
 33 87  1  0  0  0  0
 34 42  1  0  0  0  0
 34 43  1  0  0  0  0
 34 88  1  0  0  0  0
 35 45  1  0  0  0  0
 35 46  1  0  0  0  0
 35 89  1  0  0  0  0
 37 40  1  0  0  0  0
 37 44  1  1  0  0  0
 37 91  1  0  0  0  0
 39 48  1  1  0  0  0
 39 52  1  0  0  0  0
 39 93  1  0  0  0  0
 41 47  1  0  0  0  0
 41 49  1  0  0  0  0
 41 94  1  0  0  0  0
 42 95  1  0  0  0  0
 42 96  1  0  0  0  0
 42 97  1  0  0  0  0
 43 98  1  0  0  0  0
 43 99  1  0  0  0  0
 43100  1  0  0  0  0
 44 57  1  0  0  0  0
 44102  1  0  0  0  0
 44103  1  0  0  0  0
 45104  1  0  0  0  0
 45105  1  0  0  0  0
 45106  1  0  0  0  0
 46107  1  0  0  0  0
 46108  1  0  0  0  0
 46109  1  0  0  0  0
 47 53  1  0  0  0  0
 47110  1  0  0  0  0
 47111  1  0  0  0  0
 48 63  1  0  0  0  0
 48113  1  0  0  0  0
 48114  1  0  0  0  0
 50 60  1  1  0  0  0
 50 64  1  0  0  0  0
 50115  1  0  0  0  0
 51 58  1  0  0  0  0
 51 62  1  0  0  0  0
 51116  1  0  0  0  0
 53117  1  0  0  0  0
 53118  1  0  0  0  0
 54 55  1  0  0  0  0
 54 65  1  0  0  0  0
 54 72  1  0  0  0  0
 54119  1  0  0  0  0
 55 59  1  0  0  0  0
 55121  1  0  0  0  0
 55122  1  0  0  0  0
 56 66  1  0  0  0  0
 56 68  1  0  0  0  0
 56123  1  6  0  0  0
 57124  1  0  0  0  0
 57125  1  0  0  0  0
 59 69  1  0  0  0  0
 59127  1  0  0  0  0
 59128  1  0  0  0  0
 60 73  1  0  0  0  0
 60129  1  0  0  0  0
 60130  1  0  0  0  0
 61 70  1  0  0  0  0
 61 71  1  0  0  0  0
 61131  1  0  0  0  0
 62 76  1  0  0  0  0
 62132  1  0  0  0  0
 62133  1  0  0  0  0
 63134  1  0  0  0  0
 63135  1  0  0  0  0
 65 78  1  0  0  0  0
 65136  1  0  0  0  0
 65137  1  0  0  0  0
 66 79  1  0  0  0  0
 66140  1  0  0  0  0
 67 74  1  0  0  0  0
 67 75  1  0  0  0  0
 67142  1  0  0  0  0
 69 77  1  0  0  0  0
 69143  1  0  0  0  0
 69144  1  0  0  0  0
 71 80  1  0  0  0  0
 71145  1  0  0  0  0
 72146  1  0  0  0  0
 72147  1  0  0  0  0
 72148  1  0  0  0  0
 73152  1  0  0  0  0
 73153  1  0  0  0  0
 74 81  1  0  0  0  0
 74150  1  0  0  0  0
 74151  1  0  0  0  0
 76154  1  0  0  0  0
 76155  1  0  0  0  0
 78157  1  0  0  0  0
 78158  1  0  0  0  0
 78159  1  0  0  0  0
 79162  1  0  0  0  0
 79163  1  0  0  0  0
 79164  1  0  0  0  0
 80165  1  0  0  0  0
 80166  1  0  0  0  0
 80167  1  0  0  0  0
 81170  1  0  0  0  0
 81171  1  0  0  0  0
M  END
> <PUBCHEM_COMPOUND_CID>
5311054

> <PUBCHEM_COMPOUND_CANONICALIZED>
1

> <PUBCHEM_CACTVS_COMPLEXITY>
2050

> <PUBCHEM_CACTVS_HBOND_ACCEPTOR>
18

> <PUBCHEM_CACTVS_HBOND_DONOR>
18

> <PUBCHEM_CACTVS_ROTATABLE_BOND>
28

> <PUBCHEM_CACTVS_SUBSKEYS>
AAADcfB//AAAAAAAAAAAAAAAAAAAAAAAAAAAAAAAAAAAAAAAAAAAHgAQCAAADTzhgAYCAALAAgAIAAEQEAAAAAAAAAAAAIGIAAACUBYAwCAUQAACNgCQAAEciACOAAAAAAAAAAAAAAAAAAAAAAAAAAAAAA==

> <PUBCHEM_IUPAC_OPENEYE_NAME>
N-[(1S)-3-amino-1-[[(1S,2R)-1-[[(1S)-3-amino-1-[[(3S,6S,9S,12S,15R,18S,21S)-6,9,18-tris(2-aminoethyl)-3-[(1R)-1-hydroxyethyl]-12,15-diisobutyl-2,5,8,11,14,17,20-heptaoxo-1,4,7,10,13,16,19-heptazacyclotricos-21-yl]carbamoyl]propyl]carbamoyl]-2-hydroxy-propyl]carbamoyl]propyl]-5-methyl-heptanamide

> <PUBCHEM_IUPAC_CAS_NAME>
N-[(2S)-4-amino-1-[[(2S,3R)-1-[[(2S)-4-amino-1-oxo-1-[[(3S,6S,9S,12S,15R,18S,21S)-6,9,18-tris(2-aminoethyl)-3-[(1R)-1-hydroxyethyl]-12,15-bis(2-methylpropyl)-2,5,8,11,14,17,20-heptaoxo-1,4,7,10,13,16,19-heptazacyclotricos-21-yl]amino]butan-2-yl]amino]-3-hydroxy-1-oxobutan-2-yl]amino]-1-oxobutan-2-yl]-5-methylheptanamide

> <PUBCHEM_IUPAC_NAME_MARKUP>
<I>N</I>-[(2<I>S</I>)-4-amino-1-[[(2<I>S</I>,3<I>R</I>)-1-[[(2<I>S</I>)-4-amino-1-oxo-1-[[(3<I>S</I>,6<I>S</I>,9<I>S</I>,12<I>S</I>,15<I>R</I>,18<I>S</I>,21<I>S</I>)-6,9,18-tris(2-aminoethyl)-3-[(1<I>R</I>)-1-hydroxyethyl]-12,15-bis(2-methylpropyl)-2,5,8,11,14,17,20-heptaoxo-1,4,7,10,13,16,19-heptazacyclotricos-21-yl]amino]butan-2-yl]amino]-3-hydroxy-1-oxobutan-2-yl]amino]-1-oxobutan-2-yl]-5-methylheptanamide

> <PUBCHEM_IUPAC_NAME>
N-[(2S)-4-amino-1-[[(2S,3R)-1-[[(2S)-4-amino-1-oxo-1-[[(3S,6S,9S,12S,15R,18S,21S)-6,9,18-tris(2-aminoethyl)-3-[(1R)-1-hydroxyethyl]-12,15-bis(2-methylpropyl)-2,5,8,11,14,17,20-heptaoxo-1,4,7,10,13,16,19-heptazacyclotricos-21-yl]amino]butan-2-yl]amino]-3-hydroxy-1-oxobutan-2-yl]amino]-1-oxobutan-2-yl]-5-methylheptanamide

> <PUBCHEM_IUPAC_SYSTEMATIC_NAME>
N-[(2S)-4-azanyl-1-[[(2S,3R)-1-[[(2S)-4-azanyl-1-oxidanylidene-1-[[(3S,6S,9S,12S,15R,18S,21S)-6,9,18-tris(2-azanylethyl)-12,15-bis(2-methylpropyl)-3-[(1R)-1-oxidanylethyl]-2,5,8,11,14,17,20-heptakis(oxidanylidene)-1,4,7,10,13,16,19-heptazacyclotricos-21-yl]amino]butan-2-yl]amino]-3-oxidanyl-1-oxidanylidene-butan-2-yl]amino]-1-oxidanylidene-butan-2-yl]-5-methyl-heptanamide

> <PUBCHEM_IUPAC_TRADITIONAL_NAME>
N-[(1S)-3-amino-1-[[(1S,2R)-1-[[(1S)-3-amino-1-[[(3S,6S,9S,12S,15R,18S,21S)-6,9,18-tris(2-aminoethyl)-3-[(1R)-1-hydroxyethyl]-12,15-diisobutyl-2,5,8,11,14,17,20-heptaketo-1,4,7,10,13,16,19-heptazacyclotricos-21-yl]carbamoyl]propyl]carbamoyl]-2-hydroxy-propyl]carbamoyl]propyl]-5-methyl-enanthamide

> <PUBCHEM_IUPAC_INCHI>
InChI=1S/C52H98N16O13/c1-9-29(6)11-10-12-40(71)59-32(13-19-53)47(76)68-42(31(8)70)52(81)64-35(16-22-56)44(73)63-37-18-24-58-51(80)41(30(7)69)67-48(77)36(17-23-57)61-43(72)33(14-20-54)62-49(78)38(25-27(2)3)66-50(79)39(26-28(4)5)65-45(74)34(15-21-55)60-46(37)75/h27-39,41-42,69-70H,9-26,53-57H2,1-8H3,(H,58,80)(H,59,71)(H,60,75)(H,61,72)(H,62,78)(H,63,73)(H,64,81)(H,65,74)(H,66,79)(H,67,77)(H,68,76)/t29?,30-,31-,32+,33+,34+,35+,36+,37+,38+,39-,41+,42+/m1/s1

> <PUBCHEM_IUPAC_INCHIKEY>
YKQOSKADJPQZHB-QNPLFGSASA-N

> <PUBCHEM_XLOGP3_AA>
-3.3

> <PUBCHEM_EXACT_MASS>
1154.74992724

> <PUBCHEM_MOLECULAR_FORMULA>
C52H98N16O13

> <PUBCHEM_MOLECULAR_WEIGHT>
1155.4

> <PUBCHEM_OPENEYE_CAN_SMILES>
CCC(C)CCCC(=O)NC(CCN)C(=O)NC(C(C)O)C(=O)NC(CCN)C(=O)NC1CCNC(=O)C(NC(=O)C(NC(=O)C(NC(=O)C(NC(=O)C(NC(=O)C(NC1=O)CCN)CC(C)C)CC(C)C)CCN)CCN)C(C)O

> <PUBCHEM_OPENEYE_ISO_SMILES>
CCC(C)CCCC(=O)N[C@@H](CCN)C(=O)N[C@@H]([C@@H](C)O)C(=O)N[C@@H](CCN)C(=O)N[C@H]1CCNC(=O)[C@@H](NC(=O)[C@@H](NC(=O)[C@@H](NC(=O)[C@@H](NC(=O)[C@H](NC(=O)[C@@H](NC1=O)CCN)CC(C)C)CC(C)C)CCN)CCN)[C@@H](C)O

> <PUBCHEM_CACTVS_TPSA>
491

> <PUBCHEM_MONOISOTOPIC_WEIGHT>
1154.74992724

> <PUBCHEM_TOTAL_CHARGE>
0

> <PUBCHEM_HEAVY_ATOM_COUNT>
81

> <PUBCHEM_ATOM_DEF_STEREO_COUNT>
12

> <PUBCHEM_ATOM_UDEF_STEREO_COUNT>
1

> <PUBCHEM_BOND_DEF_STEREO_COUNT>
0

> <PUBCHEM_BOND_UDEF_STEREO_COUNT>
0

> <PUBCHEM_ISOTOPIC_ATOM_COUNT>
0

> <PUBCHEM_COMPONENT_COUNT>
1

> <PUBCHEM_CACTVS_TAUTO_COUNT>
1001

> <PUBCHEM_COORDINATE_TYPE>
1
5
255

> <PUBCHEM_BONDANNOTATIONS>
41  18  6
51  21  5
61  23  6
67  24  5
30  32  6
31  33  5
37  44  5
39  48  5
50  60  5
54  72  3
56  123  6
66  7  6
71  9  5

$$$$
